LAMMPS data file Created by LigParGen - (Written by Leela S. Dodda)

       6 atoms
       5 bonds
       7 angles
       3 dihedrals
       2 impropers
 
       6 atom types
       5 bond types
       7 angle types
       3 dihedral types
       2 improper types
 
   -0.159660    49.840340 xlo xhi
    0.008450    50.008450 ylo yhi
   -0.766190    49.233810 zlo zhi

Masses

       1     12.011  
       2     14.007  
       3     12.011  
       4      1.008  
       5      1.008  
       6      1.008  

Pair Coeffs 

       1      0.066  3.3000000 
       2      0.170  3.2000000 
       3      0.066  3.3000000 
       4      0.015  2.5000000 
       5      0.015  2.5000000 
       6      0.015  2.5000000 

Bond Coeffs 

       1   650.0000     1.1570 
       2   385.0000     1.4580 
       3   340.0000     1.0900 
       4   340.0000     1.0900 
       5   340.0000     1.0900 

Angle Coeffs 

       1    150.000    180.000
       2     35.000    108.500
       3     35.000    108.500
       4     35.000    108.500
       5     33.000    107.800
       6     33.000    107.800
       7     33.000    107.800

Dihedral Coeffs  

       1      0.000      0.000      0.000      0.000 
       2      0.000      0.000      0.000      0.000 
       3      0.000      0.000      0.000      0.000 

Improper Coeffs 

       1      0.000      -1       2 
       2      0.000      -1       2 

Atoms 

     1      1      1 0.48710000   0.649  -0.09100  0.00000
     2      1      2 -0.57090000    0.649  -0.09100  1.15400
     3      1      3 -0.43220000    0.649  -0.09100  -1.45200
     4      1      4 0.17200000   0.649  -1.11900  -1.82100
     5      1      5 0.17200000   -0.241  0.42300  -1.82100
     6      1      6 0.17200000   1.540  0.42300  -1.82100

Bonds 

     1      1      2      1
     2      2      3      1
     3      3      4      3
     4      4      5      3
     5      5      6      3

Angles 

     1      1      2      1      3
     2      2      1      3      4
     3      3      1      3      5
     4      4      1      3      6
     5      5      5      3      6
     6      6      4      3      6
     7      7      4      3      5

Dihedrals

     1      1      4      3      1      2 
     2      2      5      3      1      2 
     3      3      6      3      1      2 

Impropers

     1      1      3      1      4      5 
     2      2      3      1      4      6 

