LAMMPS data file Created by LigParGen - (Written by Leela S. Dodda)

      21 atoms
      20 bonds
      37 angles
      42 dihedrals
      12 impropers
 
      21 atom types
      20 bond types
      37 angle types
      42 dihedral types
      12 improper types
 
   -4.931310    45.068690 xlo xhi
   -1.193160    48.806840 ylo yhi
   -0.549590    49.450410 zlo zhi

Masses

       1      1.008  
       2     12.011  
       3     12.011  
       4      1.008  
       5      1.008  
       6     12.011  
       7     32.060  
       8      1.008  
       9      1.008  
      10      1.008  
      11      1.008  
      12     12.011  
      13     12.011  
      14     12.011  
      15      1.008  
      16      1.008  
      17      1.008  
      18      1.008  
      19      1.008  
      20      1.008  
      21      1.008  

Pair Coeffs 

       1      0.030  2.5000000 
       2      0.066  3.5000000 
       3      0.066  3.5000000 
       4      0.030  2.5000000 
       5      0.030  2.5000000 
       6      0.066  3.5000000 
       7      0.355  3.6000000 
       8      0.030  2.5000000 
       9      0.030  2.5000000 
      10      0.030  2.5000000 
      11      0.030  2.5000000 
      12      0.066  3.5000000 
      13      0.066  3.5000000 
      14      0.066  3.5000000 
      15      0.030  2.5000000 
      16      0.030  2.5000000 
      17      0.030  2.5000000 
      18      0.030  2.5000000 
      19      0.030  2.5000000 
      20      0.030  2.5000000 
      21      0.030  2.5000000 

Bond Coeffs 

       1   340.0000     1.0900 
       2   268.0000     1.5290 
       3   340.0000     1.0900 
       4   340.0000     1.0900 
       5   268.0000     1.5290 
       6   222.0000     1.8100 
       7   340.0000     1.0900 
       8   340.0000     1.0900 
       9   340.0000     1.0900 
      10   340.0000     1.0900 
      11   222.0000     1.8100 
      12   268.0000     1.5290 
      13   268.0000     1.5290 
      14   340.0000     1.0900 
      15   340.0000     1.0900 
      16   340.0000     1.0900 
      17   340.0000     1.0900 
      18   340.0000     1.0900 
      19   340.0000     1.0900 
      20   340.0000     1.0900 

Angle Coeffs 

       1     37.500    110.700
       2     33.000    107.800
       3     33.000    107.800
       4     58.350    112.700
       5     50.000    114.700
       6     37.500    110.700
       7     37.500    110.700
       8     37.500    110.700
       9     37.500    110.700
      10     62.000     98.900
      11     50.000    114.700
      12     50.000    114.700
      13     35.000    109.500
      14     37.500    110.700
      15     37.500    110.700
      16     37.500    110.700
      17     37.500    110.700
      18     37.500    110.700
      19     37.500    110.700
      20     37.500    110.700
      21     35.000    109.500
      22     33.000    107.800
      23     37.500    110.700
      24     33.000    107.800
      25     33.000    107.800
      26     37.500    110.700
      27     58.350    112.700
      28     37.500    110.700
      29     33.000    107.800
      30     37.500    110.700
      31     33.000    107.800
      32     33.000    107.800
      33     33.000    107.800
      34     33.000    107.800
      35     50.000    114.700
      36     33.000    107.800
      37     33.000    107.800

Dihedral Coeffs  

       1      opls      0.000      0.000      0.300      0.000 
       2      opls      0.000      0.000      0.300      0.000 
       3      opls      0.925     -0.576      0.677      0.000 
       4      opls      0.925     -0.576      0.677      0.000 
       5      opls      0.000      0.000      0.452      0.000 
       6      opls      0.000      0.000      0.452      0.000 
       7      opls      0.000      0.000      0.300      0.000 
       8      opls      0.000      0.000      0.452      0.000 
       9      opls      0.000      0.000      0.300      0.000 
      10      opls      0.925     -0.576      0.677      0.000 
      11      opls      0.000      0.000      0.300      0.000 
      12      opls      0.000      0.000      0.452      0.000 
      13      opls      0.000      0.000      0.300      0.000 
      14      opls      0.000      0.000      0.300      0.000 
      15      opls      0.000      0.000      0.300      0.000 
      16      opls      0.000      0.000      0.452      0.000 
      17      opls      0.000      0.000      0.452      0.000 
      18      opls      0.000      0.000      0.452      0.000 
      19      opls      0.000      0.000      0.300      0.000 
      20      opls      0.000      0.000      0.300      0.000 
      21      opls      0.000      0.000      0.300      0.000 
      22      opls      0.000      0.000      0.300      0.000 
      23      opls      0.000      0.000      0.300      0.000 
      24      opls      0.000      0.000      0.300      0.000 
      25      opls      0.000      0.000      0.300      0.000 
      26      opls      0.000      0.000      0.300      0.000 
      27      opls      0.000      0.000      0.300      0.000 
      28      opls      0.000      0.000      0.647      0.000 
      29      opls      0.000      0.000      0.300      0.000 
      30      opls      0.000      0.000      0.452      0.000 
      31      opls      0.000      0.000      0.452      0.000 
      32      opls      0.000      0.000      0.300      0.000 
      33      opls      0.000      0.000      0.452      0.000 
      34      opls      0.925     -0.576      0.677      0.000 
      35      opls      0.000      0.000      0.300      0.000 
      36      opls      0.000      0.000      0.300      0.000 
      37      opls      0.000      0.000      0.452      0.000 
      38      opls      0.000      0.000      0.300      0.000 
      39      opls      0.000      0.000      0.452      0.000 
      40      opls      0.000      0.000      0.300      0.000 
      41      opls      0.000      0.000      0.300      0.000 
      42      opls      0.000      0.000      0.647      0.000 

Improper Coeffs 

       1      0.000      -1       2 
       2      0.000      -1       2 
       3      0.000      -1       2 
       4      0.000      -1       2 
       5      0.000      -1       2 
       6      0.000      -1       2 
       7      0.000      -1       2 
       8      0.000      -1       2 
       9      0.000      -1       2 
      10      0.000      -1       2 
      11      0.000      -1       2 
      12      0.000      -1       2 

Atoms 

     1      1      1 0.09240000   1.000  1.00000  0.00000
     2      1      2 -0.31390000   -0.094  1.00000  0.00000
     3      1      3 0.24670000   -0.611  1.00000  1.44238
     4      1      4 0.09240000  -0.435  0.11898 -0.54959
     5      1      5 0.09240000  -0.430  1.89272 -0.53531
     6      1      6 -0.26350000   -0.103  2.21252  2.22209
     7      1      7 -0.34840000   -2.458  0.92439  1.34937
     8      1      8 0.02160000  -0.273  0.08300  1.93157
     9      1      9 0.06870000   0.992  2.22596  2.21879
    10      1     10 0.06870000  -0.429  2.19526  3.26492
    11      1     11 0.06870000  -0.461  3.14008  1.76592
    12      1     12 0.24670000   -2.979  0.92678  3.12710
    13      1     13 -0.26350000   -2.388 -0.23840  3.92002
    14      1     14 -0.31390000   -4.510  0.90168  3.14020
    15      1     15 0.02160000  -2.640  1.87310  3.55825
    16      1     16 0.06870000  -2.686 -1.19316  3.47898
    17      1     17 0.06870000  -1.297 -0.20290  3.95125
    18      1     18 0.06870000  -2.751 -0.20789  4.95329
    19      1     19 0.09240000  -4.889 -0.02101  2.69090
    20      1     20 0.09240000  -4.871  0.94742  4.17262
    21      1     21 0.09240000  -4.931  1.74806  2.59179

Bonds 

     1      1      2      1
     2      2      3      2
     3      3      4      2
     4      4      5      2
     5      5      6      3
     6      6      7      3
     7      7      8      3
     8      8      9      6
     9      9     10      6
    10     10     11      6
    11     11     12      7
    12     12     13     12
    13     13     14     12
    14     14     15     12
    15     15     16     13
    16     16     17     13
    17     17     18     13
    18     18     19     14
    19     19     20     14
    20     20     21     14

Angles 

     1      1      1      2      3
     2      2      1      2      4
     3      3      1      2      5
     4      4      2      3      6
     5      5      2      3      7
     6      6      2      3      8
     7      7      3      6      9
     8      8      3      6     10
     9      9      3      6     11
    10     10      3      7     12
    11     11      7     12     13
    12     12      7     12     14
    13     13      7     12     15
    14     14     12     13     16
    15     15     12     13     17
    16     16     12     13     18
    17     17     12     14     19
    18     18     12     14     20
    19     19     12     14     21
    20     20      6      3      8
    21     21      7      3      8
    22     22     16     13     18
    23     23     14     12     15
    24     24     19     14     21
    25     25     16     13     17
    26     26      3      2      4
    27     27     13     12     14
    28     28      3      2      5
    29     29      9      6     10
    30     30     13     12     15
    31     31     19     14     20
    32     32      4      2      5
    33     33      9      6     11
    34     34     20     14     21
    35     35      6      3      7
    36     36     10      6     11
    37     37     17     13     18

Dihedrals

     1      1      6      3      2      1 
     2      2      9      6      3      2 
     3      3     12      7      3      2 
     4      4     13     12      7      3 
     5      5     16     13     12      7 
     6      6     19     14     12      7 
     7      7     10      6      3      8 
     8      8      7      3      2      5 
     9      9      8      3      2      4 
    10     10     14     12      7      3 
    11     11     11      6      3      8 
    12     12     20     14     12      7 
    13     13     10      6      3      2 
    14     14     16     13     12     14 
    15     15      6      3      2      4 
    16     16      9      6      3      7 
    17     17      7      3      2      1 
    18     18     18     13     12      7 
    19     19     18     13     12     15 
    20     20     20     14     12     13 
    21     21     18     13     12     14 
    22     22     11      6      3      2 
    23     23     17     13     12     15 
    24     24     21     14     12     15 
    25     25      8      3      2      5 
    26     26     16     13     12     15 
    27     27     17     13     12     14 
    28     28     12      7      3      8 
    29     29      9      6      3      8 
    30     30     10      6      3      7 
    31     31     17     13     12      7 
    32     32      8      3      2      1 
    33     33     11      6      3      7 
    34     34     12      7      3      6 
    35     35     20     14     12     15 
    36     36      6      3      2      5 
    37     37      7      3      2      4 
    38     38     19     14     12     13 
    39     39     21     14     12      7 
    40     40     21     14     12     13 
    41     41     19     14     12     15 
    42     42     15     12      7      3 

Impropers

     1      1      2      1      3      4 
     2      2      2      1      3      5 
     3      3      3      2      6      7 
     4      4      3      2      6      8 
     5      5      6      9     10      3 
     6      6      6      9     11      3 
     7      7     12     13     14      7 
     8      8     12     13      7     15 
     9      9     13     17     12     16 
    10     10     13     18     12     16 
    11     11     14     12     19     20 
    12     12     14     19     12     21 

