LAMMPS data file Created by LigParGen - (Written by Leela S. Dodda)

      14 atoms
      13 bonds
      22 angles
      20 dihedrals
       7 impropers
 
      14 atom types
      13 bond types
      22 angle types
      20 dihedral types
       7 improper types
 
   -3.652920    46.347080 xlo xhi
    0.110170    50.110170 ylo yhi
   -1.032240    48.967760 zlo zhi

Masses

       1     12.011  
       2     12.011  
       3     15.999  
       4     12.011  
       5     12.011  
       6     15.999  
       7      1.008  
       8      1.008  
       9      1.008  
      10      1.008  
      11      1.008  
      12      1.008  
      13      1.008  
      14      1.008  

Pair Coeffs 

       1      0.066  3.5000000 
       2      0.066  3.5000000 
       3      0.140  2.9000000 
       4      0.070  3.5500000 
       5      0.066  3.5000000 
       6      0.210  2.9600000 
       7      0.030  2.5000000 
       8      0.030  2.5000000 
       9      0.030  2.5000000 
      10      0.030  2.5000000 
      11      0.030  2.5000000 
      12      0.030  2.5000000 
      13      0.030  2.5000000 
      14      0.030  2.5000000 

Bond Coeffs 

       1   268.0000     1.5290 
       2   320.0000     1.4100 
       3   214.0000     1.3270 
       4   317.0000     1.5220 
       5   570.0000     1.2290 
       6   340.0000     1.0900 
       7   340.0000     1.0900 
       8   340.0000     1.0900 
       9   340.0000     1.0900 
      10   340.0000     1.0900 
      11   340.0000     1.0900 
      12   340.0000     1.0900 
      13   340.0000     1.0900 

Angle Coeffs 

       1     50.000    109.500
       2     83.000    116.900
       3     81.000    111.400
       4     83.000    123.400
       5     37.500    110.700
       6     37.500    110.700
       7     37.500    110.700
       8     37.500    110.700
       9     37.500    110.700
      10     35.000    109.500
      11     35.000    109.500
      12     35.000    109.500
      13     80.000    120.400
      14     33.000    107.800
      15     33.000    107.800
      16     35.000    109.500
      17     33.000    107.800
      18     33.000    107.800
      19     33.000    107.800
      20     33.000    107.800
      21     33.000    107.800
      22     35.000    109.500

Dihedral Coeffs  

       1     -1.220     -0.126      0.422      0.000 
       2      4.669      5.124      0.000      0.000 
       3      0.000      0.000      0.468      0.000 
       4      0.000      0.000      0.132      0.000 
       5      0.000      0.000      0.300      0.000 
       6      0.000      0.000      0.300      0.000 
       7      0.000      0.000      0.300      0.000 
       8      0.000      0.000      0.000      0.000 
       9      0.000      5.124      0.000      0.000 
      10      0.000      0.000      0.132      0.000 
      11      0.000      0.000      0.000      0.000 
      12      0.000      0.000      0.300      0.000 
      13      0.000      0.000      0.300      0.000 
      14      0.000      0.000      0.300      0.000 
      15      0.000      0.000      0.000      0.000 
      16      0.000      0.000      0.468      0.000 
      17      0.000      0.000      0.468      0.000 
      18      0.000      0.000      0.198      0.000 
      19      0.000      0.000      0.198      0.000 
      20      0.000      0.000      0.132      0.000 

Improper Coeffs 

       1     10.500      -1       2 
       2      0.000      -1       2 
       3      0.000      -1       2 
       4      0.000      -1       2 
       5      0.000      -1       2 
       6      0.000      -1       2 
       7      0.000      -1       2 

Atoms 

     1      1      1 -0.42120000    1.000  1.00000  0.00000
     2      1      2 0.51080000  -0.513  1.00000  0.00000
     3      1      3 -0.55660000   -0.948  1.00000  1.38844
     4      1      4 0.96050000  -2.275  0.99849  1.61449
     5      1      5 -0.63910000   -2.575  1.00045  3.08801
     6      1      6 -0.65330000   -3.102  0.99715  0.72768
     7      1      7 0.11000000   1.362  1.00130 -1.03224
     8      1      8 0.11000000   1.390  1.88819  0.50244
     9      1      9 0.11000000   1.391  0.11017  0.50041
    10      1     10 -0.03000000  -0.921  0.11425 -0.49292
    11      1     11 -0.03000000  -0.921  1.88612 -0.49312
    12      1     12 0.17630000  -3.653  0.99788  3.24448
    13      1     13 0.17630000  -2.128  0.12169  3.55977
    14      1     14 0.17630000  -2.134  1.88691  3.55313

Bonds 

     1      1      2      1
     2      2      3      2
     3      3      4      3
     4      4      5      4
     5      5      6      4
     6      6      7      1
     7      7      8      1
     8      8      9      1
     9      9     10      2
    10     10     11      2
    11     11     12      5
    12     12     13      5
    13     13     14      5

Angles 

     1      1      1      2      3
     2      2      2      3      4
     3      3      3      4      5
     4      4      3      4      6
     5      5      2      1      7
     6      6      2      1      8
     7      7      2      1      9
     8      8      1      2     10
     9      9      1      2     11
    10     10      4      5     12
    11     11      4      5     13
    12     12      4      5     14
    13     13      5      4      6
    14     14     13      5     14
    15     15      8      1      9
    16     16      3      2     11
    17     17     10      2     11
    18     18     12      5     13
    19     19      7      1      9
    20     20      7      1      8
    21     21     12      5     14
    22     22      3      2     10

Dihedrals

     1      1      4      3      2      1 
     2      2      5      4      3      2 
     3      3      7      1      2      3 
     4      4     12      5      4      3 
     5      5     10      2      1      9 
     6      6     11      2      1      8 
     7      7     11      2      1      9 
     8      8     12      5      4      6 
     9      9      6      4      3      2 
    10     10     13      5      4      3 
    11     11     13      5      4      6 
    12     12     10      2      1      8 
    13     13     11      2      1      7 
    14     14     10      2      1      7 
    15     15     14      5      4      6 
    16     16      9      1      2      3 
    17     17      8      1      2      3 
    18     18     10      2      3      4 
    19     19     11      2      3      4 
    20     20     14      5      4      3 

Impropers

     1      1      4      3      5      6 
     2      2      1      2      7      8 
     3      3      1      9      7      2 
     4      4      2      1     10      3 
     5      5      2      1     11      3 
     6      6      5     12      4     13 
     7      7      5     12      4     14 

