LAMMPS data file Created by LigParGen - (Written by Leela S. Dodda)

      10 atoms
      10 bonds
      17 angles
      19 dihedrals
       4 impropers
 
      10 atom types
      10 bond types
      17 angle types
      19 dihedral types
       4 improper types
 
   -2.008520    47.991480 xlo xhi
   -0.536240    49.463760 ylo yhi
   -0.824470    49.175530 zlo zhi

Masses

       1     12.011  
       2     15.999  
       3     12.011  
       4     12.011  
       5      1.008  
       6      1.008  
       7      1.008  
       8     15.999  
       9     15.999  
      10     18.998  

Pair Coeffs 

       1      0.066  3.5000000 
       2      0.140  2.9000000 
       3      0.070  3.5500000 
       4      0.066  3.5000000 
       5      0.030  2.5000000 
       6      0.030  2.5000000 
       7      0.030  2.5000000 
       8      0.140  2.9000000 
       9      0.210  2.9600000 
      10      0.060  2.9000000 

Bond Coeffs 

       1   320.0000     1.4100 
       2   214.0000     1.3270 
       3   268.0000     1.5290 
       4   340.0000     1.0900 
       5   340.0000     1.0900 
       6   340.0000     1.0900 
       7   214.0000     1.3270 
       8   570.0000     1.2290 
       9   367.0000     1.3600 
      10   320.0000     1.4100 

Angle Coeffs 

       1     83.000    116.900
       2     50.000    109.500
       3     35.000    109.500
       4     37.500    110.700
       5     37.500    110.700
       6     69.900    118.180
       7     83.000    123.400
       8     51.650    110.580
       9     83.000    116.900
      10     40.000    107.000
      11     83.000    123.400
      12     35.000    109.500
      13     50.000    109.500
      14     33.000    107.800
      15     35.000    109.500
      16     50.000    109.500
      17     37.500    110.700

Dihedral Coeffs  

       1     -1.220     -0.126      0.422      0.000 
       2      0.000      0.000      0.468      0.000 
       3      4.669      5.124      0.000      0.000 
       4      0.000      0.000      0.300      0.000 
       5      0.000      0.000      0.198      0.000 
       6      0.000      5.124      0.000      0.000 
       7      4.669      5.124      0.000      0.000 
       8     -1.220     -0.126      0.422      0.000 
       9      0.000      0.000      0.400      0.000 
      10      0.000      0.000      0.198      0.000 
      11      0.000      0.000      0.300      0.000 
      12      0.000      0.000      0.468      0.000 
      13      0.000      0.000      0.400      0.000 
      14      0.000      0.000      0.540      0.000 
      15      0.000      0.000      0.198      0.000 
      16     -0.550      0.000      0.000      0.000 
      17      0.000      0.000      0.468      0.000 
      18      0.000      0.000      0.198      0.000 
      19      0.000      5.124      0.000      0.000 

Improper Coeffs 

       1      0.000      -1       2 
       2      0.000      -1       2 
       3     10.500      -1       2 
       4      0.000      -1       2 

Atoms 

     1      1      1 0.43060000   1.000  1.00000  0.00000
     2      1      2 -0.42550000   -0.408  1.00000  0.00000
     3      1      3 0.93980000  -0.863  1.00000  1.29239
     4      1      4 0.00910000    1.362  0.53494  1.40046
     5      1      5 0.07230000   1.376  0.40058 -0.82447
     6      1      6 0.11860000   2.182  1.10289  1.83265
     7      1      7 0.11860000   1.565 -0.53624  1.42445
     8      1      8 -0.39690000    0.151  0.80629  2.14540
     9      1      9 -0.58940000   -2.009  1.15217  1.58860
    10      1     10 -0.27720000    1.421  2.31713 -0.20335

Bonds 

     1      1      2      1
     2      2      3      2
     3      3      4      1
     4      4      5      1
     5      5      6      4
     6      6      7      4
     7      7      8      3
     8      8      9      3
     9      9     10      1
    10     10      8      4

Angles 

     1      1      1      2      3
     2      2      2      1      4
     3      3      2      1      5
     4      4      1      4      6
     5      5      1      4      7
     6      6      2      3      8
     7      7      2      3      9
     8      8      2      1     10
     9      9      3      8      4
    10     10      5      1     10
    11     11      8      3      9
    12     12      7      4      8
    13     13      1      4      8
    14     14      6      4      7
    15     15      6      4      8
    16     16      4      1     10
    17     17      4      1      5

Dihedrals

     1      1      4      1      2      3 
     2      2      6      4      1      2 
     3      3      8      3      2      1 
     4      4      7      4      1      5 
     5      5      5      1      2      3 
     6      6      9      3      2      1 
     7      7      4      8      3      2 
     8      8      3      8      4      1 
     9      9     10      1      4      7 
    10     10      7      4      8      3 
    11     11      6      4      1      5 
    12     12      7      4      1      2 
    13     13     10      1      4      6 
    14     14     10      1      4      8 
    15     15      6      4      8      3 
    16     16      8      4      1      2 
    17     17      8      4      1      5 
    18     18     10      1      2      3 
    19     19      9      3      8      4 

Impropers

     1      1      1      2      4      5 
     2      2      4      1      6      7 
     3      3      3      9      2      8 
     4      4      1     10      4      2 

