LAMMPS data file Created by LigParGen - (Written by Leela S. Dodda)

       8 atoms
       5 bonds
       4 angles
       3 dihedrals
       0 impropers
 
       8 atom types
       5 bond types
       4 angle types
       3 dihedral types
       0 improper types
 
   -9.000000    41.000000 xlo xhi
   -9.000000    41.000000 ylo yhi
   -9.000000    41.000000 zlo zhi

Masses

       1      6.941  
       2      6.941  
       3     32.065  
       4     32.065  
       5     32.065  
       6     32.065
       7     32.065
       8     32.065	   

Pair Coeffs 

       1      0.0005  2.87 
       2      0.0005  2.87 
       3      0.2824  3.532413 
       4      0.2824  3.532413 
       5      0.2824  3.532413 
       6      0.2824  3.532413 
       7      0.2824  3.532413
       8      0.2824  3.532413

Bond Coeffs 

       1   308.7200     2.117 
       2   315.7480     2.133 
       3   315.7480     2.133 
	   4   315.7480     2.133 
       5   308.7200     2.117 

Angle Coeffs 

       1    147.120    112.740
       2    147.120    112.740
       3    147.120    112.740
       4    147.120    112.740

Dihedral Coeffs  

       1     nharmonic     6     -0.6933     -2.2641     7.6446     -4.2204     -0.4663     0
       2     nharmonic     6     -0.6933     -2.2641     7.6446     -4.2204     -0.4663     0
       3     nharmonic     6     -0.6933     -2.2641     7.6446     -4.2204     -0.4663     0

Atoms 

     1      1      1 1.00000000    -0.880000    1.367000    0.000000
     2      1      2 1.00000000    -1.073000    1.368000    2.752000
     3      1      3 -0.83070000   -2.866000    1.767000    1.248000
     4      1      4 -0.02460000   -3.380000   -0.293000    1.211000
     5      1      5 -0.14470000   -1.796000   -1.313000    2.124000
     6      1      6 -0.14470000   -0.158000   -1.313000    0.628000
     7      1      7 -0.02460000    1.426000   -0.294000    1.541000
     8      1      8 -0.83070000    0.914000    1.766000    1.504000

Bonds 

     1      1      3      4
     2      2      4      5
     3      3      5      6
     4      4      6      7
     5      5      7      8

Angles 

     1      1      3      4      5
     2      2      4      5      6
	 3      3      5      6      7
	 4      4      6      7      8

Dihedrals

     1      1      3      4      5      6 
     2      2      4      5      6      7 
     3      3      5      6      7      8 

