LAMMPS data file Created by LigParGen - (Written by Leela S. Dodda)

       6 atoms
       3 bonds
       2 angles
       1 dihedrals
       0 impropers
 
       6 atom types
       3 bond types
       2 angle types
       1 dihedral types
       0 improper types
 
   -9.000000    41.000000 xlo xhi
   -9.000000    41.000000 ylo yhi
   -9.000000    41.000000 zlo zhi

Masses

       1      6.941  
       2      6.941  
       3     32.065  
       4     32.065  
       5     32.065  
       6     32.065  

Pair Coeffs 

       1      0.0005  2.87 
       2      0.0005  2.87 
       3      0.2824  3.532413 
       4      0.2824  3.532413 
       5      0.2824  3.532413 
       6      0.2824  3.532413 

Bond Coeffs 

       1   308.7200     2.117 
       2   315.7480     2.133 
       3   308.7200     2.117 

Angle Coeffs 

       1    147.120    112.740
       2    147.120    112.740

Dihedral Coeffs  

       1     nharmonic     6     -0.6933     -2.2641     7.6446     -4.2204     -0.4663     0

Atoms 

     1      1      1 1.00000000    -1.969000    1.501000    0.020000
     2      1      2 1.00000000    -2.426000    1.501000   -2.773000
     3      1      3 -0.88460000   -4.050000    1.742000   -1.115000
     4      1      4 -0.11540000   -3.198000    3.578000   -1.802000
     5      1      5 -0.11540000   -1.197000    3.578000   -0.951000
     6      1      6 -0.88460000   -0.345000    1.742000   -1.638000

Bonds 

     1      1      3      4
     2      2      4      5
     3      3      5      6

Angles 

     1      1      3      4      5
     2      2      4      5      6

Dihedrals

     1      1      3      4      5      6 

