LAMMPS data file Created by LigParGen - (Written by Leela S. Dodda)

      10 atoms
       7 bonds
       6 angles
       5 dihedrals
       0 impropers
 
      10 atom types
       7 bond types
       6 angle types
       5 dihedral types
       0 improper types
 
   -9.000000    41.000000 xlo xhi
   -9.000000    41.000000 ylo yhi
   -9.000000    41.000000 zlo zhi

Masses

       1      6.941  
       2      6.941  
       3     32.065  
       4     32.065  
       5     32.065  
       6     32.065
       7     32.065
       8     32.065	   
       9     32.065
      10     32.065

Pair Coeffs 

       1      0.0005  2.87 
       2      0.0005  2.87 
       3      0.2824  3.532413 
       4      0.2824  3.532413 
       5      0.2824  3.532413 
       6      0.2824  3.532413 
       7      0.2824  3.532413
       8      0.2824  3.532413
       9      0.2824  3.532413
      10      0.2824  3.532413

Bond Coeffs 

       1   308.7200     2.117 
       2   315.7480     2.133 
       3   315.7480     2.133 
       4   315.7480     2.133
       5   315.7480     2.133
	   6   315.7480     2.133 
       7   308.7200     2.117 

Angle Coeffs 

       1    147.120    112.740
       2    147.120    112.740
       3    147.120    112.740
       4    147.120    112.740
       5    147.120    112.740
       6    147.120    112.740

Dihedral Coeffs  

       1     nharmonic     6     -0.6933     -2.2641     7.6446     -4.2204     -0.4663      0
       2     nharmonic     6     -0.6933     -2.2641     7.6446     -4.2204     -0.4663      0
       3     nharmonic     6     -0.6933     -2.2641     7.6446     -4.2204     -0.4663      0
       4     nharmonic     6     -0.6933     -2.2641     7.6446     -4.2204     -0.4663      0
       5     nharmonic     6     -0.6933     -2.2641     7.6446     -4.2204     -0.4663      0

Atoms 

     1      1      1 1.00000000     1.527000    0.521000   -0.328000
     2      1      2 1.00000000     0.426000    0.521000    2.003000
     3      1      3 -0.82740000   -0.784000    0.889000    0.000000
     4      1      4 -0.09210000   -1.638000   -0.508000    1.334000
     5      1      5 0.00030000   -1.475000   -2.512000    0.631000
     6      1      6 -0.08080000    0.149000   -3.484000    1.521000
     7      1      7 -0.08080000    1.804000   -3.485000    0.155000
     8      1      8 0.00030000    3.429000   -2.512000    1.044000
     9      1      9 -0.09210000    3.591000   -0.508000    0.342000
    10      1     10 -0.82740000    2.737000    0.889000    1.675000

Bonds 

     1      1      3      4
     2      2      4      5
     3      3      5      6
     4      4      6      7
     5      5      7      8
     6      6      8      9
     7      7      9     10

Angles 

     1      1      3      4      5
     2      2      4      5      6
	 3      3      5      6      7
	 4      4      6      7      8
	 5      5      7      8      9
	 6      6      8      9     10

Dihedrals

     1      1      3      4      5      6 
     2      2      4      5      6      7 
     3      3      5      6      7      8 
     4      4      6      7      8      9 
     5      5      7      8      9     10 

