LAMMPS data file Created by LigParGen - (Written by Leela S. Dodda)

      13 atoms
      13 bonds
      23 angles
      28 dihedrals
       6 impropers
 
      13 atom types
      13 bond types
      23 angle types
      28 dihedral types
       6 improper types
 
   -2.066930    47.933070 xlo xhi
   -0.889100    49.110900 ylo yhi
   -2.089950    47.910050 zlo zhi

Masses

       1     12.011  
       2     15.999  
       3     12.011  
       4     12.011  
       5      1.008  
       6      1.008  
       7      1.008  
       8     15.999  
       9     15.999  
      10     12.011  
      11      1.008  
      12      1.008  
      13      1.008  

Pair Coeffs 

       1      0.066  3.5000000 
       2      0.140  2.9000000 
       3      0.070  3.5500000 
       4      0.066  3.5000000 
       5      0.030  2.5000000 
       6      0.030  2.5000000 
       7      0.030  2.5000000 
       8      0.140  2.9000000 
       9      0.210  2.9600000 
      10      0.066  3.5000000 
      11      0.030  2.5000000 
      12      0.030  2.5000000 
      13      0.030  2.5000000 

Bond Coeffs 

       1   320.0000     1.4100 
       2   214.0000     1.3270 
       3   268.0000     1.5290 
       4   340.0000     1.0900 
       5   340.0000     1.0900 
       6   340.0000     1.0900 
       7   214.0000     1.3270 
       8   570.0000     1.2290 
       9   268.0000     1.5290 
      10   340.0000     1.0900 
      11   340.0000     1.0900 
      12   340.0000     1.0900 
      13   320.0000     1.4100 

Angle Coeffs 

       1     83.000    116.900
       2     50.000    109.500
       3     35.000    109.500
       4     37.500    110.700
       5     37.500    110.700
       6     69.900    118.180
       7     83.000    123.400
       8     50.000    109.500
       9     37.500    110.700
      10     37.500    110.700
      11     37.500    110.700
      12     35.000    109.500
      13     33.000    107.800
      14     58.350    112.700
      15     33.000    107.800
      16     37.500    110.700
      17     83.000    116.900
      18     33.000    107.800
      19     83.000    123.400
      20     37.500    110.700
      21     35.000    109.500
      22     33.000    107.800
      23     50.000    109.500

Dihedral Coeffs  

       1     -1.220     -0.126      0.422      0.000 
       2      0.000      0.000      0.468      0.000 
       3      4.669      5.124      0.000      0.000 
       4      0.000      0.000      0.468      0.000 
       5      0.000      0.000      0.300      0.000 
       6      0.000      0.000      0.300      0.000 
       7      0.000      0.000      0.198      0.000 
       8      0.000      0.000      0.468      0.000 
       9      0.000      0.000      0.300      0.000 
      10      4.669      5.124      0.000      0.000 
      11     -1.220     -0.126      0.422      0.000 
      12      1.711     -0.500      0.663      0.000 
      13      0.000      0.000      0.198      0.000 
      14     -0.550      0.000      0.000      0.000 
      15      0.000      5.124      0.000      0.000 
      16      0.000      0.000      0.300      0.000 
      17      0.000      0.000      0.300      0.000 
      18      0.000      0.000      0.468      0.000 
      19      0.000      0.000      0.300      0.000 
      20      0.000      0.000      0.198      0.000 
      21      0.000      0.000      0.468      0.000 
      22      0.000      0.000      0.300      0.000 
      23      0.000      5.124      0.000      0.000 
      24     -1.220     -0.126      0.422      0.000 
      25      0.000      0.000      0.300      0.000 
      26      0.000      0.000      0.300      0.000 
      27      0.000      0.000      0.468      0.000 
      28      0.000      0.000      0.300      0.000 

Improper Coeffs 

       1      0.000      -1       2 
       2      0.000      -1       2 
       3     10.500      -1       2 
       4      0.000      -1       2 
       5      0.000      -1       2 
       6      0.000      -1       2 

Atoms 

     1      1      1 0.46020000   1.000  1.00000  0.00000
     2      1      2 -0.50240000   -0.468  1.00000  0.00000
     3      1      3 0.95720000  -0.916  1.00000  1.26686
     4      1      4 0.16150000    1.303  0.50139  1.41347
     5      1      5 -0.00160000   1.306  2.04141 -0.12099
     6      1      6 0.04680000   2.140  1.01481  1.88273
     7      1      7 0.04680000   1.447 -0.58032  1.44906
     8      1      8 -0.47820000    0.093  0.82298  2.14256
     9      1      9 -0.61550000   -2.067  1.13846  1.58001
    10      1     10 -0.49240000    1.521  0.13341 -1.11999
    11      1     11 0.13920000   1.220  0.53410 -2.08995
    12      1     12 0.13920000   2.614  0.11794 -1.07895
    13      1     13 0.13920000   1.150 -0.88910 -1.01828

Bonds 

     1      1      2      1
     2      2      3      2
     3      3      4      1
     4      4      5      1
     5      5      6      4
     6      6      7      4
     7      7      8      3
     8      8      9      3
     9      9     10      1
    10     10     11     10
    11     11     12     10
    12     12     13     10
    13     13      8      4

Angles 

     1      1      1      2      3
     2      2      2      1      4
     3      3      2      1      5
     4      4      1      4      6
     5      5      1      4      7
     6      6      2      3      8
     7      7      2      3      9
     8      8      2      1     10
     9      9      1     10     11
    10     10      1     10     12
    11     11      1     10     13
    12     12      7      4      8
    13     13     11     10     12
    14     14      4      1     10
    15     15      6      4      7
    16     16      4      1      5
    17     17      3      8      4
    18     18     12     10     13
    19     19      8      3      9
    20     20      5      1     10
    21     21      6      4      8
    22     22     11     10     13
    23     23      1      4      8

Dihedrals

     1      1      4      1      2      3 
     2      2      6      4      1      2 
     3      3      8      3      2      1 
     4      4     11     10      1      2 
     5      5     12     10      1      5 
     6      6     13     10      1      4 
     7      7      5      1      2      3 
     8      8     12     10      1      2 
     9      9     12     10      1      4 
    10     10      4      8      3      2 
    11     11      3      8      4      1 
    12     12     10      1      4      8 
    13     13      6      4      8      3 
    14     14      8      4      1      2 
    15     15      9      3      2      1 
    16     16     11     10      1      5 
    17     17      7      4      1      5 
    18     18     13     10      1      2 
    19     19     11     10      1      4 
    20     20      7      4      8      3 
    21     21      7      4      1      2 
    22     22      6      4      1      5 
    23     23      9      3      8      4 
    24     24     10      1      2      3 
    25     25     13     10      1      5 
    26     26     10      1      4      6 
    27     27      8      4      1      5 
    28     28     10      1      4      7 

Impropers

     1      1      1      2      4      5 
     2      2      4      1      6      7 
     3      3      3      9      2      8 
     4      4      1     10      4      2 
     5      5     10      1     11     12 
     6      6     10      1     11     13 

