LAMMPS data file Created by LigParGen - (Written by Leela S. Dodda)

      18 atoms
      17 bonds
      29 angles
      28 dihedrals
       9 impropers
 
      18 atom types
      17 bond types
      29 angle types
      28 dihedral types
       9 improper types
 
   -0.210000    49.790000 xlo xhi
    0.113540    50.113540 ylo yhi
   -4.423770    45.576230 zlo zhi

Masses

       1     12.011  
       2     15.999  
       3     15.999  
       4     15.999  
       5     12.011  
       6     12.011  
       7      1.008  
       8      1.008  
       9      1.008  
      10      1.008  
      11      1.008  
      12     12.011  
      13     12.011  
      14      1.008  
      15      1.008  
      16      1.008  
      17      1.008  
      18      1.008  

Pair Coeffs 

       1      0.070  3.5500000 
       2      0.210  2.9600000 
       3      0.140  2.9000000 
       4      0.140  2.9000000 
       5      0.066  3.5000000 
       6      0.066  3.5000000 
       7      0.030  2.5000000 
       8      0.030  2.5000000 
       9      0.030  2.5000000 
      10      0.030  2.5000000 
      11      0.030  2.5000000 
      12      0.066  3.5000000 
      13      0.066  3.5000000 
      14      0.030  2.5000000 
      15      0.030  2.5000000 
      16      0.030  2.5000000 
      17      0.030  2.5000000 
      18      0.030  2.5000000 

Bond Coeffs 

       1   570.0000     1.2290 
       2   214.0000     1.3270 
       3   214.0000     1.3270 
       4   320.0000     1.4100 
       5   268.0000     1.5290 
       6   340.0000     1.0900 
       7   340.0000     1.0900 
       8   340.0000     1.0900 
       9   340.0000     1.0900 
      10   340.0000     1.0900 
      11   320.0000     1.4100 
      12   268.0000     1.5290 
      13   340.0000     1.0900 
      14   340.0000     1.0900 
      15   340.0000     1.0900 
      16   340.0000     1.0900 
      17   340.0000     1.0900 

Angle Coeffs 

       1     83.000    123.400
       2     83.000    123.400
       3     83.000    116.900
       4     50.000    109.500
       5     35.000    109.500
       6     35.000    109.500
       7     37.500    110.700
       8     37.500    110.700
       9     37.500    110.700
      10     83.000    116.900
      11     50.000    109.500
      12     35.000    109.500
      13     35.000    109.500
      14     37.500    110.700
      15     37.500    110.700
      16     37.500    110.700
      17     69.900    118.180
      18     33.000    107.800
      19     33.000    107.800
      20     33.000    107.800
      21     37.500    110.700
      22     37.500    110.700
      23     33.000    107.800
      24     37.500    110.700
      25     37.500    110.700
      26     33.000    107.800
      27     33.000    107.800
      28     33.000    107.800
      29     33.000    107.800

Dihedral Coeffs  

       1      0.000      5.124      0.000      0.000 
       2     -1.220     -0.126      0.422      0.000 
       3      0.000      0.000      0.468      0.000 
       4      0.000      5.124      0.000      0.000 
       5     -1.220     -0.126      0.422      0.000 
       6      0.000      0.000      0.468      0.000 
       7      0.000      0.000      0.468      0.000 
       8      0.000      0.000      0.300      0.000 
       9      0.000      0.000      0.198      0.000 
      10      0.000      0.000      0.198      0.000 
      11      0.000      0.000      0.300      0.000 
      12      0.000      0.000      0.300      0.000 
      13      0.000      0.000      0.300      0.000 
      14      0.000      0.000      0.468      0.000 
      15      4.669      5.124      0.000      0.000 
      16      0.000      0.000      0.468      0.000 
      17      0.000      0.000      0.300      0.000 
      18      0.000      0.000      0.300      0.000 
      19      4.669      5.124      0.000      0.000 
      20      0.000      0.000      0.198      0.000 
      21      0.000      0.000      0.300      0.000 
      22      0.000      0.000      0.300      0.000 
      23      0.000      0.000      0.198      0.000 
      24      0.000      0.000      0.300      0.000 
      25      0.000      0.000      0.300      0.000 
      26      0.000      0.000      0.300      0.000 
      27      0.000      0.000      0.300      0.000 
      28      0.000      0.000      0.468      0.000 

Improper Coeffs 

       1     10.500      -1       2 
       2      0.000      -1       2 
       3      0.000      -1       2 
       4      0.000      -1       2 
       5      0.000      -1       2 
       6      0.000      -1       2 
       7      0.000      -1       2 
       8      0.000      -1       2 
       9      0.000      -1       2 

Atoms 

     1      1      1 1.07450000   1.000  1.00000  0.00000
     2      1      2 -0.68050000   -0.210  1.00000  0.00000
     3      1      3 -0.53880000    1.782  1.00000 -1.08294
     4      1      4 -0.53880000    1.782  1.00137  1.08294
     5      1      5 0.44100000   1.091  1.00000 -2.36421
     6      1      6 -0.36500000    2.152  1.00183 -3.44276
     7      1      7 -0.01920000   0.454  1.88702 -2.41627
     8      1      8 -0.01920000   0.455  0.11372 -2.41630
     9      1      9 0.10140000   1.668  1.00318 -4.42377
    10      1     10 0.10140000   2.783  1.89105 -3.36828
    11      1     11 0.10140000   2.784  0.11354 -3.37189
    12      1     12 0.44100000   1.091  1.00299  2.36421
    13      1     13 -0.36500000    2.152  1.00618  3.44276
    14      1     14 -0.01920000   0.457  0.11484  2.41737
    15      1     15 -0.01920000   0.454  1.88860  2.41460
    16      1     16 0.10140000   1.668  1.00616  4.42377
    17      1     17 0.10140000   2.786  0.11860  3.37139
    18      1     18 0.10140000   2.781  1.89611  3.36877

Bonds 

     1      1      2      1
     2      2      3      1
     3      3      4      1
     4      4      5      3
     5      5      6      5
     6      6      7      5
     7      7      8      5
     8      8      9      6
     9      9     10      6
    10     10     11      6
    11     11     12      4
    12     12     13     12
    13     13     14     12
    14     14     15     12
    15     15     16     13
    16     16     17     13
    17     17     18     13

Angles 

     1      1      2      1      3
     2      2      2      1      4
     3      3      1      3      5
     4      4      3      5      6
     5      5      3      5      7
     6      6      3      5      8
     7      7      5      6      9
     8      8      5      6     10
     9      9      5      6     11
    10     10      1      4     12
    11     11      4     12     13
    12     12      4     12     14
    13     13      4     12     15
    14     14     12     13     16
    15     15     12     13     17
    16     16     12     13     18
    17     17      3      1      4
    18     18     10      6     11
    19     19     16     13     18
    20     20     14     12     15
    21     21      6      5      7
    22     22     13     12     14
    23     23      9      6     10
    24     24     13     12     15
    25     25      6      5      8
    26     26      7      5      8
    27     27     16     13     17
    28     28      9      6     11
    29     29     17     13     18

Dihedrals

     1      1      5      3      1      2 
     2      2      6      5      3      1 
     3      3      9      6      5      3 
     4      4     12      4      1      2 
     5      5     13     12      4      1 
     6      6     16     13     12      4 
     7      7     11      6      5      3 
     8      8     16     13     12     14 
     9      9     15     12      4      1 
    10     10      7      5      3      1 
    11     11     18     13     12     15 
    12     12     10      6      5      7 
    13     13      9      6      5      8 
    14     14     17     13     12      4 
    15     15     12      4      1      3 
    16     16     10      6      5      3 
    17     17     11      6      5      8 
    18     18      9      6      5      7 
    19     19      5      3      1      4 
    20     20     14     12      4      1 
    21     21     16     13     12     15 
    22     22     17     13     12     14 
    23     23      8      5      3      1 
    24     24     11      6      5      7 
    25     25     10      6      5      8 
    26     26     18     13     12     14 
    27     27     17     13     12     15 
    28     28     18     13     12      4 

Impropers

     1      1      1      2      3      4 
     2      2      5      3      6      7 
     3      3      5      3      6      8 
     4      4      6      9     10      5 
     5      5      6      9     11      5 
     6      6     12      4     13     14 
     7      7     12      4     13     15 
     8      8     13     17     12     16 
     9      9     13     18     12     16 

