LAMMPS data file Created by LigParGen - (Written by Leela S. Dodda)

      12 atoms
      11 bonds
      17 angles
      10 dihedrals
       5 impropers
 
      12 atom types
      11 bond types
      17 angle types
      10 dihedral types
       5 improper types
 
   -0.209000    49.791000 xlo xhi
    0.105650    50.105650 ylo yhi
   -3.103510    46.896490 zlo zhi

Masses

       1     12.011  
       2     15.999  
       3     15.999  
       4     15.999  
       5     12.011  
       6      1.008  
       7      1.008  
       8      1.008  
       9     12.011  
      10      1.008  
      11      1.008  
      12      1.008  

Pair Coeffs 

       1      0.070  3.5500000 
       2      0.210  2.9600000 
       3      0.140  2.9000000 
       4      0.140  2.9000000 
       5      0.066  3.5000000 
       6      0.030  2.5000000 
       7      0.030  2.5000000 
       8      0.030  2.5000000 
       9      0.066  3.5000000 
      10      0.030  2.5000000 
      11      0.030  2.5000000 
      12      0.030  2.5000000 

Bond Coeffs 

       1   570.0000     1.2290 
       2   214.0000     1.3270 
       3   214.0000     1.3270 
       4   320.0000     1.4100 
       5   340.0000     1.0900 
       6   340.0000     1.0900 
       7   340.0000     1.0900 
       8   320.0000     1.4100 
       9   340.0000     1.0900 
      10   340.0000     1.0900 
      11   340.0000     1.0900 

Angle Coeffs 

       1     83.000    123.400
       2     83.000    123.400
       3     83.000    116.900
       4     35.000    109.500
       5     35.000    109.500
       6     35.000    109.500
       7     83.000    116.900
       8     35.000    109.500
       9     35.000    109.500
      10     35.000    109.500
      11     69.900    118.180
      12     33.000    107.800
      13     33.000    107.800
      14     33.000    107.800
      15     33.000    107.800
      16     33.000    107.800
      17     33.000    107.800

Dihedral Coeffs  

       1      0.000      5.124      0.000      0.000 
       2      0.000      0.000      0.198      0.000 
       3      0.000      5.124      0.000      0.000 
       4      0.000      0.000      0.198      0.000 
       5      0.000      0.000      0.198      0.000 
       6      4.669      5.124      0.000      0.000 
       7      0.000      0.000      0.198      0.000 
       8      4.669      5.124      0.000      0.000 
       9      0.000      0.000      0.198      0.000 
      10      0.000      0.000      0.198      0.000 

Improper Coeffs 

       1     10.500      -1       2 
       2      0.000      -1       2 
       3      0.000      -1       2 
       4      0.000      -1       2 
       5      0.000      -1       2 

Atoms 

     1      1      1 1.05530000   1.000  1.00000  0.00000
     2      1      2 -0.65950000   -0.209  1.00000  0.00000
     3      1      3 -0.47350000    1.783  1.00000 -1.08179
     4      1      4 -0.47350000    1.783  1.00137  1.08179
     5      1      5 0.07700000    1.091  1.00000 -2.34974
     6      1      6 0.06620000   1.876  1.00133 -3.10351
     7      1      7 0.06620000   0.473  0.10565 -2.44669
     8      1      8 0.06620000   0.471  1.89310 -2.44561
     9      1      9 0.07700000    1.091  1.00297  2.34974
    10      1     10 0.06620000   0.471  0.11000  2.44674
    11      1     11 0.06620000   1.876  1.00260  3.10350
    12      1     12 0.06620000   0.471  1.89639  2.44465

Bonds 

     1      1      2      1
     2      2      3      1
     3      3      4      1
     4      4      5      3
     5      5      6      5
     6      6      7      5
     7      7      8      5
     8      8      9      4
     9      9     10      9
    10     10     11      9
    11     11     12      9

Angles 

     1      1      2      1      3
     2      2      2      1      4
     3      3      1      3      5
     4      4      3      5      6
     5      5      3      5      7
     6      6      3      5      8
     7      7      1      4      9
     8      8      4      9     10
     9      9      4      9     11
    10     10      4      9     12
    11     11      3      1      4
    12     12     10      9     11
    13     13      6      5      8
    14     14     11      9     12
    15     15      6      5      7
    16     16     10      9     12
    17     17      7      5      8

Dihedrals

     1      1      5      3      1      2 
     2      2      6      5      3      1 
     3      3      9      4      1      2 
     4      4     10      9      4      1 
     5      5     11      9      4      1 
     6      6      5      3      1      4 
     7      7      7      5      3      1 
     8      8      9      4      1      3 
     9      9      8      5      3      1 
    10     10     12      9      4      1 

Impropers

     1      1      1      2      3      4 
     2      2      5      3      6      7 
     3      3      5      3      6      8 
     4      4      9     10     11      4 
     5      5      9      4     12     10 

