LAMMPS data file Created by LigParGen - (Written by Leela S. Dodda)

      16 atoms
      15 bonds
      26 angles
      21 dihedrals
       8 impropers
 
      16 atom types
      15 bond types
      26 angle types
      21 dihedral types
       8 improper types
 
   -0.099880    49.900120 xlo xhi
   -3.404200    46.595800 ylo yhi
   -1.045950    48.954050 zlo zhi

Masses

       1     12.011  
       2      1.008  
       3      1.008  
       4     12.011  
       5      1.008  
       6      1.008  
       7     15.999  
       8     15.999  
       9     12.011  
      10      1.008  
      11      1.008  
      12      1.008  
      13     12.011  
      14      1.008  
      15      1.008  
      16      1.008  

Pair Coeffs 

       1      0.066  3.5000000 
       2      0.030  2.5000000 
       3      0.030  2.5000000 
       4      0.066  3.5000000 
       5      0.030  2.5000000 
       6      0.030  2.5000000 
       7      0.140  2.9000000 
       8      0.140  2.9000000 
       9      0.066  3.5000000 
      10      0.030  2.5000000 
      11      0.030  2.5000000 
      12      0.030  2.5000000 
      13      0.066  3.5000000 
      14      0.030  2.5000000 
      15      0.030  2.5000000 
      16      0.030  2.5000000 

Bond Coeffs 

       1   340.0000     1.0900 
       2   340.0000     1.0900 
       3   268.0000     1.5290 
       4   340.0000     1.0900 
       5   340.0000     1.0900 
       6   320.0000     1.4100 
       7   320.0000     1.4100 
       8   320.0000     1.4100 
       9   340.0000     1.0900 
      10   340.0000     1.0900 
      11   340.0000     1.0900 
      12   320.0000     1.4100 
      13   340.0000     1.0900 
      14   340.0000     1.0900 
      15   340.0000     1.0900 

Angle Coeffs 

       1     33.000    107.800
       2     37.500    110.700
       3     37.500    110.700
       4     37.500    110.700
       5     50.000    109.500
       6     35.000    109.500
       7     60.000    109.500
       8     35.000    109.500
       9     35.000    109.500
      10     35.000    109.500
      11     60.000    109.500
      12     35.000    109.500
      13     35.000    109.500
      14     35.000    109.500
      15     33.000    107.800
      16     35.000    109.500
      17     33.000    107.800
      18     33.000    107.800
      19     35.000    109.500
      20     37.500    110.700
      21     33.000    107.800
      22     35.000    109.500
      23     33.000    107.800
      24     33.000    107.800
      25     33.000    107.800
      26     50.000    109.500

Dihedral Coeffs  

       1      0.000      0.000      0.300      0.000 
       2      0.000      0.000      0.760      0.000 
       3      0.000      0.000      0.760      0.000 
       4      0.650     -0.250      0.670      0.000 
       5      0.000      0.000      0.760      0.000 
       6     -0.550      0.000      0.000      0.000 
       7      0.000      0.000      0.300      0.000 
       8      0.000      0.000      0.760      0.000 
       9      0.000      0.000      0.468      0.000 
      10      0.000      0.000      0.468      0.000 
      11      0.000      0.000      0.760      0.000 
      12      0.000      0.000      0.300      0.000 
      13      0.000      0.000      0.760      0.000 
      14      0.000      0.000      0.760      0.000 
      15      0.000      0.000      0.760      0.000 
      16      0.000      0.000      0.760      0.000 
      17      0.000      0.000      0.300      0.000 
      18      0.000      0.000      0.468      0.000 
      19      0.650     -0.250      0.670      0.000 
      20      0.000      0.000      0.760      0.000 
      21      0.000      0.000      0.468      0.000 

Improper Coeffs 

       1      0.000      -1       2 
       2      0.000      -1       2 
       3      0.000      -1       2 
       4      0.000      -1       2 
       5      0.000      -1       2 
       6      0.000      -1       2 
       7      0.000      -1       2 
       8      0.000      -1       2 

Atoms 

     1      1      1 0.18260000   1.000  1.00000  0.00000
     2      1      2 0.02160000  -0.100  1.00000  0.00000
     3      1      3 0.02160000   1.340  1.00000 -1.04595
     4      1      4 0.18260000   1.515 -0.23883  0.71005
     5      1      5 0.02160000   2.615 -0.23949  0.70891
     6      1      6 0.02160000   1.175 -0.23773  1.75613
     7      1      7 -0.43710000    1.011 -1.37276  0.01811
     8      1      8 -0.43710000    1.500  2.13578  0.69011
     9      1      9 0.09370000    1.080  3.36097  0.10959
    10      1     10 0.03920000   1.511  4.16761  0.70626
    11      1     11 0.03920000   1.432  3.45676 -0.92766
    12      1     12 0.03920000  -0.016  3.45538  0.12005
    13      1     13 0.09370000    1.433 -2.59878  0.59703
    14      1     14 0.03920000   1.083 -2.69401  1.63506
    15      1     15 0.03920000   0.998 -3.40420  0.00176
    16      1     16 0.03920000   2.528 -2.69293  0.58464

Bonds 

     1      1      2      1
     2      2      3      1
     3      3      4      1
     4      4      5      4
     5      5      6      4
     6      6      7      4
     7      7      8      1
     8      8      9      8
     9      9     10      9
    10     10     11      9
    11     11     12      9
    12     12     13      7
    13     13     14     13
    14     14     15     13
    15     15     16     13

Angles 

     1      1      2      1      3
     2      2      2      1      4
     3      3      1      4      5
     4      4      1      4      6
     5      5      1      4      7
     6      6      2      1      8
     7      7      1      8      9
     8      8      8      9     10
     9      9      8      9     11
    10     10      8      9     12
    11     11      4      7     13
    12     12      7     13     14
    13     13      7     13     15
    14     14      7     13     16
    15     15      5      4      6
    16     16      5      4      7
    17     17     15     13     16
    18     18     10      9     12
    19     19      6      4      7
    20     20      3      1      4
    21     21     14     13     15
    22     22      3      1      8
    23     23     10      9     11
    24     24     14     13     16
    25     25     11      9     12
    26     26      4      1      8

Dihedrals

     1      1      5      4      1      2 
     2      2      9      8      1      2 
     3      3     10      9      8      1 
     4      4     13      7      4      1 
     5      5     14     13      7      4 
     6      6      8      1      4      7 
     7      7      6      4      1      3 
     8      8      9      8      1      3 
     9      9      8      1      4      6 
    10     10      8      1      4      5 
    11     11     16     13      7      4 
    12     12      6      4      1      2 
    13     13     13      7      4      6 
    14     14     12      9      8      1 
    15     15     15     13      7      4 
    16     16     13      7      4      5 
    17     17      5      4      1      3 
    18     18      7      4      1      3 
    19     19      9      8      1      4 
    20     20     11      9      8      1 
    21     21      7      4      1      2 

Impropers

     1      1      1      2      3      4 
     2      2      4      1      5      6 
     3      3      4      1      5      7 
     4      4      1      2      3      8 
     5      5      9     10     11      8 
     6      6      9     10     12      8 
     7      7     13      7     15     14 
     8      8     13     14      7     16 

