LAMMPS data file Created by LigParGen - (Written by Leela S. Dodda)

      19 atoms
      18 bonds
      32 angles
      30 dihedrals
      10 impropers
 
      19 atom types
      18 bond types
      32 angle types
      30 dihedral types
      10 improper types
 
   -2.714330    47.285670 xlo xhi
   -1.067060    48.932940 ylo yhi
   -1.038610    48.961390 zlo zhi

Masses

       1     12.011  
       2     12.011  
       3      1.008  
       4      1.008  
       5     12.011  
       6      1.008  
       7      1.008  
       8      1.008  
       9      1.008  
      10     15.999  
      11     15.999  
      12     12.011  
      13      1.008  
      14      1.008  
      15      1.008  
      16     12.011  
      17      1.008  
      18      1.008  
      19      1.008  

Pair Coeffs 

       1      0.066  3.5000000 
       2      0.066  3.5000000 
       3      0.030  2.5000000 
       4      0.030  2.5000000 
       5      0.066  3.5000000 
       6      0.030  2.5000000 
       7      0.030  2.5000000 
       8      0.030  2.5000000 
       9      0.030  2.5000000 
      10      0.140  2.9000000 
      11      0.140  2.9000000 
      12      0.066  3.5000000 
      13      0.030  2.5000000 
      14      0.030  2.5000000 
      15      0.030  2.5000000 
      16      0.066  3.5000000 
      17      0.030  2.5000000 
      18      0.030  2.5000000 
      19      0.030  2.5000000 

Bond Coeffs 

       1   268.0000     1.5290 
       2   340.0000     1.0900 
       3   340.0000     1.0900 
       4   268.0000     1.5290 
       5   340.0000     1.0900 
       6   340.0000     1.0900 
       7   340.0000     1.0900 
       8   340.0000     1.0900 
       9   320.0000     1.4100 
      10   320.0000     1.4100 
      11   320.0000     1.4100 
      12   340.0000     1.0900 
      13   340.0000     1.0900 
      14   340.0000     1.0900 
      15   320.0000     1.4100 
      16   340.0000     1.0900 
      17   340.0000     1.0900 
      18   340.0000     1.0900 

Angle Coeffs 

       1     37.500    110.700
       2     37.500    110.700
       3     58.350    112.700
       4     37.500    110.700
       5     37.500    110.700
       6     37.500    110.700
       7     37.500    110.700
       8     50.000    109.500
       9     50.000    109.500
      10     60.000    109.500
      11     35.000    109.500
      12     35.000    109.500
      13     35.000    109.500
      14     60.000    109.500
      15     35.000    109.500
      16     35.000    109.500
      17     35.000    109.500
      18     35.000    109.500
      19     35.000    109.500
      20     33.000    107.800
      21     33.000    107.800
      22     33.000    107.800
      23     35.000    109.500
      24     37.500    110.700
      25     33.000    107.800
      26     33.000    107.800
      27     33.000    107.800
      28     33.000    107.800
      29     33.000    107.800
      30     35.000    109.500
      31     33.000    107.800
      32     37.500    110.700

Dihedral Coeffs  

       1      0.000      0.000      0.300      0.000 
       2      0.000      0.000      0.300      0.000 
       3      0.650     -0.250      0.670      0.000 
       4      0.000      0.000      0.760      0.000 
       5      0.650     -0.250      0.670      0.000 
       6      0.000      0.000      0.760      0.000 
       7      0.000      0.000      0.300      0.000 
       8      0.000      0.000      0.760      0.000 
       9      0.000      0.000      0.300      0.000 
      10      0.000      0.000      0.468      0.000 
      11      0.000      0.000      0.760      0.000 
      12      0.000      0.000      0.760      0.000 
      13      0.000      0.000      0.300      0.000 
      14      0.000      0.000      0.760      0.000 
      15      0.000      0.000      0.300      0.000 
      16      0.000      0.000      0.760      0.000 
      17      0.000      0.000      0.760      0.000 
      18      1.711     -0.500      0.663      0.000 
      19      0.000      0.000      0.300      0.000 
      20      0.000      0.000      0.760      0.000 
      21      1.711     -0.500      0.663      0.000 
      22      0.000      0.000      0.300      0.000 
      23      0.000      0.000      0.760      0.000 
      24      0.000      0.000      0.468      0.000 
      25      0.000      0.000      0.300      0.000 
      26      0.000      0.000      0.300      0.000 
      27      0.000      0.000      0.300      0.000 
      28      0.000      0.000      0.468      0.000 
      29      0.000      0.000      0.300      0.000 
      30      0.000      0.000      0.468      0.000 

Improper Coeffs 

       1      0.000      -1       2 
       2      0.000      -1       2 
       3      0.000      -1       2 
       4      0.000      -1       2 
       5      0.000      -1       2 
       6      0.000      -1       2 
       7      0.000      -1       2 
       8      0.000      -1       2 
       9      0.000      -1       2 
      10      0.000      -1       2 

Atoms 

     1      1      1 0.30500000   1.000  1.00000  0.00000
     2      1      2 -0.18660000   -0.524  1.00000  0.00000
     3      1      3 -0.00840000   1.368  1.00000 -1.03861
     4      1      4 -0.00350000   1.377  1.91875  0.47895
     5      1      5 0.30510000  -1.192  1.51419  1.26683
     6      1      6 0.02480000  -0.854  1.65034 -0.81805
     7      1      7 0.07270000  -0.883 -0.00913 -0.22830
     8      1      8 -0.00450000  -2.269  1.65637  1.07711
     9      1      9 -0.01240000  -0.776  2.49897  1.53507
    10      1     10 -0.41870000    1.501 -0.14743  0.67362
    11      1     11 -0.41870000   -1.016  0.60190  2.34202
    12      1     12 0.04220000    2.916 -0.15679  0.74888
    13      1     13 0.06780000   3.208 -1.06706  1.27655
    14      1     14 0.02400000   3.375 -0.16230 -0.25024
    15      1     15 0.03720000   3.297  0.71337  1.30518
    16      1     16 0.04220000   -1.629  1.05125  3.53844
    17      1     17 0.02360000  -2.714  1.18197  3.41186
    18      1     18 0.06870000  -1.451  0.29118  4.30209
    19      1     19 0.03950000  -1.200  2.00612  3.87876

Bonds 

     1      1      2      1
     2      2      3      1
     3      3      4      1
     4      4      5      2
     5      5      6      2
     6      6      7      2
     7      7      8      5
     8      8      9      5
     9      9     10      1
    10     10     11      5
    11     11     12     10
    12     12     13     12
    13     13     14     12
    14     14     15     12
    15     15     16     11
    16     16     17     16
    17     17     18     16
    18     18     19     16

Angles 

     1      1      2      1      3
     2      2      2      1      4
     3      3      1      2      5
     4      4      1      2      6
     5      5      1      2      7
     6      6      2      5      8
     7      7      2      5      9
     8      8      2      1     10
     9      9      2      5     11
    10     10      1     10     12
    11     11     10     12     13
    12     12     10     12     14
    13     13     10     12     15
    14     14      5     11     16
    15     15     11     16     17
    16     16     11     16     18
    17     17     11     16     19
    18     18      4      1     10
    19     19      9      5     11
    20     20      3      1      4
    21     21     17     16     18
    22     22     14     12     15
    23     23      8      5     11
    24     24      5      2      6
    25     25     18     16     19
    26     26     13     12     14
    27     27     13     12     15
    28     28      6      2      7
    29     29     17     16     19
    30     30      3      1     10
    31     31      8      5      9
    32     32      5      2      7

Dihedrals

     1      1      5      2      1      3 
     2      2      8      5      2      1 
     3      3     12     10      1      2 
     4      4     13     12     10      1 
     5      5     16     11      5      2 
     6      6     17     16     11      5 
     7      7      8      5      2      7 
     8      8     14     12     10      1 
     9      9      9      5      2      6 
    10     10     11      5      2      7 
    11     11     15     12     10      1 
    12     12     16     11      5      8 
    13     13      9      5      2      1 
    14     14     18     16     11      5 
    15     15      6      2      1      4 
    16     16     12     10      1      4 
    17     17     19     16     11      5 
    18     18     10      1      2      5 
    19     19      7      2      1      3 
    20     20     12     10      1      3 
    21     21     11      5      2      1 
    22     22      8      5      2      6 
    23     23     16     11      5      9 
    24     24     10      1      2      6 
    25     25      5      2      1      4 
    26     26      6      2      1      3 
    27     27      7      2      1      4 
    28     28     10      1      2      7 
    29     29      9      5      2      7 
    30     30     11      5      2      6 

Impropers

     1      1      1      2      3      4 
     2      2      2      1      5      6 
     3      3      2      1      5      7 
     4      4      5      9      2      8 
     5      5      1     10      3      2 
     6      6      5      2     11      8 
     7      7     12     10     13     14 
     8      8     12     10     13     15 
     9      9     16     17     18     11 
    10     10     16     17     19     11 
