LAMMPS data file Created by LigParGen - (Written by Leela S. Dodda)

      11 atoms
      11 bonds
      20 angles
      21 dihedrals
       6 impropers
 
      11 atom types
      11 bond types
      20 angle types
      21 dihedral types
       6 improper types
 
   -1.618620    48.381380 xlo xhi
   -0.266610    49.733390 ylo yhi
   -2.649700    47.350300 zlo zhi

Masses

       1      1.008  
       2     12.011  
       3      1.008  
       4     15.999  
       5     15.999  
       6     12.011  
       7     12.011  
       8      1.008  
       9      1.008  
      10      1.008  
      11      1.008  

Pair Coeffs 

       1      0.030  2.5000000 
       2      0.066  3.5000000 
       3      0.030  2.5000000 
       4      0.140  2.9000000 
       5      0.140  2.9000000 
       6      0.066  3.5000000 
       7      0.066  3.5000000 
       8      0.030  2.5000000 
       9      0.030  2.5000000 
      10      0.030  2.5000000 
      11      0.030  2.5000000 

Bond Coeffs 

       1   340.0000     1.0900 
       2   340.0000     1.0900 
       3   320.0000     1.3800 
       4   320.0000     1.3800 
       5   320.0000     1.4100 
       6   320.0000     1.4100 
       7   340.0000     1.0900 
       8   340.0000     1.0900 
       9   340.0000     1.0900 
      10   340.0000     1.0900 
      11   268.0000     1.5290 

Angle Coeffs 

       1     33.000    109.500
       2     35.000    109.500
       3     35.000    109.500
       4     60.000    109.500
       5     60.000    109.500
       6     35.000    109.500
       7     35.000    109.500
       8     35.000    109.500
       9     35.000    109.500
      10     33.000    107.800
      11     50.000    109.500
      12     35.000    109.500
      13     35.000    109.500
      14     92.600    111.550
      15     50.000    109.500
      16     37.500    110.700
      17     37.500    110.700
      18     37.500    110.700
      19     37.500    110.700
      20     33.000    107.800

Dihedral Coeffs  

       1      0.000      0.000      0.760      0.000 
       2      0.000      0.000      0.760      0.000 
       3      0.000      0.000      0.300      0.000 
       4      0.000      0.000      0.468      0.000 
       5     -0.375     -1.358      0.004      0.000 
       6      0.000      0.000      0.760      0.000 
       7      0.000      0.000      0.760      0.000 
       8      0.000      0.000      0.300      0.000 
       9      0.000      0.000      0.468      0.000 
      10      0.650     -0.250      0.670      0.000 
      11     -0.550      0.000      0.000      0.000 
      12      0.000      0.000      0.468      0.000 
      13      0.000      0.000      0.760      0.000 
      14      0.000      0.000      0.468      0.000 
      15      0.000      0.000      0.300      0.000 
      16      0.000      0.000      0.300      0.000 
      17      0.650     -0.250      0.670      0.000 
      18      0.000      0.000      0.760      0.000 
      19      0.000      0.000      0.760      0.000 
      20     -0.375     -1.358      0.004      0.000 
      21      0.000      0.000      0.760      0.000 

Improper Coeffs 

       1      0.000      -1       2 
       2      0.000      -1       2 
       3      0.000      -1       2 
       4      0.000      -1       2 
       5      0.000      -1       2 
       6      0.000      -1       2 

Atoms 

     1      1      1 0.01880000   1.000  1.00000  0.00000
     2      1      2 0.38720000  -0.103  1.00000  0.00000
     3      1      3 0.01880000  -0.490  1.00000  1.02076
     4      1      4 -0.44620000   -0.594 -0.13365 -0.69429
     5      1      5 -0.44620000   -0.594  2.12736 -0.69044
     6      1      6 0.20400000   -0.644  0.24229 -2.08629
     7      1      7 0.20400000   -0.440  1.77699 -2.07364
     8      1      8 0.01490000  -1.619 -0.05306 -2.47860
     9      1      9 0.01490000   0.147 -0.26661 -2.64748
    10      1     10 0.01490000  -1.188  2.31995 -2.64970
    11      1     11 0.01490000   0.563  2.04898 -2.42115

Bonds 

     1      1      2      1
     2      2      3      2
     3      3      4      2
     4      4      5      2
     5      5      6      4
     6      6      7      5
     7      7      8      6
     8      8      9      6
     9      9     10      7
    10     10     11      7
    11     11      7      6

Angles 

     1      1      1      2      3
     2      2      1      2      4
     3      3      1      2      5
     4      4      2      4      6
     5      5      2      5      7
     6      6      4      6      8
     7      7      4      6      9
     8      8      5      7     10
     9      9      5      7     11
    10     10     10      7     11
    11     11      5      7      6
    12     12      3      2      4
    13     13      3      2      5
    14     14      4      2      5
    15     15      4      6      7
    16     16      6      7     10
    17     17      6      7     11
    18     18      7      6      9
    19     19      7      6      8
    20     20      8      6      9

Dihedrals

     1      1      6      4      2      1 
     2      2      7      5      2      1 
     3      3     11      7      6      9 
     4      4      8      6      7      5 
     5      5      6      4      2      5 
     6      6      9      6      4      2 
     7      7      8      6      4      2 
     8      8     10      7      6      8 
     9      9     11      7      6      4 
    10     10      7      6      4      2 
    11     11      5      7      6      4 
    12     12      9      6      7      5 
    13     13     11      7      5      2 
    14     14     10      7      6      4 
    15     15     11      7      6      8 
    16     16     10      7      6      9 
    17     17      6      7      5      2 
    18     18      7      5      2      3 
    19     19      6      4      2      3 
    20     20      7      5      2      4 
    21     21     10      7      5      2 

Impropers

     1      1      2      1      3      4 
     2      2      2      1      3      5 
     3      3      6      4      7      8 
     4      4      6      9      4      7 
     5      5      7     10      5      6 
     6      6      7     11      5      6 

