LAMMPS data file Created by LigParGen - (Written by Leela S. Dodda)

      10 atoms
      10 bonds
      17 angles
      19 dihedrals
       4 impropers
 
      10 atom types
      10 bond types
      17 angle types
      19 dihedral types
       4 improper types
 
   -2.038300    47.961700 xlo xhi
   -0.027130    49.972870 ylo yhi
   -0.805880    49.194120 zlo zhi

Masses

       1     12.011  
       2     15.999  
       3     12.011  
       4     12.011  
       5      1.008  
       6      1.008  
       7      1.008  
       8      1.008  
       9     15.999  
      10     15.999  

Pair Coeffs 

       1      0.066  3.5000000 
       2      0.140  2.9000000 
       3      0.070  3.5500000 
       4      0.066  3.5000000 
       5      0.030  2.5000000 
       6      0.030  2.5000000 
       7      0.030  2.5000000 
       8      0.030  2.5000000 
       9      0.140  2.9000000 
      10      0.210  2.9600000 

Bond Coeffs 

       1   320.0000     1.4100 
       2   214.0000     1.3270 
       3   268.0000     1.5290 
       4   340.0000     1.0900 
       5   340.0000     1.0900 
       6   340.0000     1.0900 
       7   340.0000     1.0900 
       8   214.0000     1.3270 
       9   570.0000     1.2290 
      10   320.0000     1.4100 

Angle Coeffs 

       1     83.000    116.900
       2     50.000    109.500
       3     35.000    109.500
       4     35.000    109.500
       5     37.500    110.700
       6     37.500    110.700
       7     69.900    118.180
       8     83.000    123.400
       9     35.000    109.500
      10     37.500    110.700
      11     33.000    107.800
      12     50.000    109.500
      13     83.000    123.400
      14     83.000    116.900
      15     33.000    107.800
      16     37.500    110.700
      17     35.000    109.500

Dihedral Coeffs  

       1     -1.220     -0.126      0.422      0.000 
       2      0.000      0.000      0.468      0.000 
       3      4.669      5.124      0.000      0.000 
       4      0.000      0.000      0.468      0.000 
       5      0.000      0.000      0.198      0.000 
       6      0.000      0.000      0.198      0.000 
       7      0.000      5.124      0.000      0.000 
       8      0.000      0.000      0.300      0.000 
       9      0.000      5.124      0.000      0.000 
      10      0.000      0.000      0.300      0.000 
      11      0.000      0.000      0.300      0.000 
      12      4.669      5.124      0.000      0.000 
      13      0.000      0.000      0.468      0.000 
      14      0.000      0.000      0.198      0.000 
      15      0.000      0.000      0.300      0.000 
      16     -0.550      0.000      0.000      0.000 
      17      0.000      0.000      0.468      0.000 
      18     -1.220     -0.126      0.422      0.000 
      19      0.000      0.000      0.198      0.000 

Improper Coeffs 

       1      0.000      -1       2 
       2      0.000      -1       2 
       3      0.000      -1       2 
       4     10.500      -1       2 

Atoms 

     1      1      1 0.12050000    1.000  1.00000  0.00000
     2      1      2 -0.44530000   -0.456  1.00000  0.00000
     3      1      3 0.98440000  -0.891  1.00000  1.27394
     4      1      4 0.12050000    1.322  1.52796  1.39253
     5      1      5 0.07590000   1.339 -0.02713 -0.15163
     6      1      6 0.07590000   1.348  1.64381 -0.80588
     7      1      7 0.07590000   1.440  2.61344  1.41644
     8      1      8 0.07590000   2.174  1.03933  1.86100
     9      1      9 -0.44530000    0.125  1.18545  2.13773
    10      1     10 -0.63840000   -2.038  0.85203  1.59689

Bonds 

     1      1      2      1
     2      2      3      2
     3      3      4      1
     4      4      5      1
     5      5      6      1
     6      6      7      4
     7      7      8      4
     8      8      9      3
     9      9     10      3
    10     10      9      4

Angles 

     1      1      1      2      3
     2      2      2      1      4
     3      3      2      1      5
     4      4      2      1      6
     5      5      1      4      7
     6      6      1      4      8
     7      7      2      3      9
     8      8      2      3     10
     9      9      8      4      9
    10     10      4      1      5
    11     11      7      4      8
    12     12      1      4      9
    13     13      9      3     10
    14     14      3      9      4
    15     15      5      1      6
    16     16      4      1      6
    17     17      7      4      9

Dihedrals

     1      1      4      1      2      3 
     2      2      7      4      1      2 
     3      3      9      3      2      1 
     4      4      9      4      1      6 
     5      5      6      1      2      3 
     6      6      5      1      2      3 
     7      7     10      3      9      4 
     8      8      8      4      1      5 
     9      9     10      3      2      1 
    10     10      8      4      1      6 
    11     11      7      4      1      6 
    12     12      4      9      3      2 
    13     13      9      4      1      5 
    14     14      7      4      9      3 
    15     15      7      4      1      5 
    16     16      9      4      1      2 
    17     17      8      4      1      2 
    18     18      3      9      4      1 
    19     19      8      4      9      3 

Impropers

     1      1      1      2      4      5 
     2      2      1      2      4      6 
     3      3      4      1      7      8 
     4      4      3      9     10      2 

