LAMMPS data file Created by LigParGen - (Written by Leela S. Dodda)

      15 atoms
      14 bonds
      23 angles
      19 dihedrals
       7 impropers
 
      15 atom types
      14 bond types
      23 angle types
      19 dihedral types
       7 improper types
 
   -0.210170    49.789830 xlo xhi
    0.110030    50.110030 ylo yhi
   -4.418650    45.581350 zlo zhi

Masses

       1     12.011  
       2     15.999  
       3     15.999  
       4     15.999  
       5     12.011  
       6     12.011  
       7      1.008  
       8      1.008  
       9      1.008  
      10      1.008  
      11      1.008  
      12     12.011  
      13      1.008  
      14      1.008  
      15      1.008  

Pair Coeffs 

       1      0.070  3.5500000 
       2      0.210  2.9600000 
       3      0.140  2.9000000 
       4      0.140  2.9000000 
       5      0.066  3.5000000 
       6      0.066  3.5000000 
       7      0.030  2.5000000 
       8      0.030  2.5000000 
       9      0.030  2.5000000 
      10      0.030  2.5000000 
      11      0.030  2.5000000 
      12      0.066  3.5000000 
      13      0.030  2.5000000 
      14      0.030  2.5000000 
      15      0.030  2.5000000 

Bond Coeffs 

       1   570.0000     1.2290 
       2   214.0000     1.3270 
       3   214.0000     1.3270 
       4   320.0000     1.4100 
       5   268.0000     1.5290 
       6   340.0000     1.0900 
       7   340.0000     1.0900 
       8   340.0000     1.0900 
       9   340.0000     1.0900 
      10   340.0000     1.0900 
      11   320.0000     1.4100 
      12   340.0000     1.0900 
      13   340.0000     1.0900 
      14   340.0000     1.0900 

Angle Coeffs 

       1     83.000    123.400
       2     83.000    123.400
       3     83.000    116.900
       4     50.000    109.500
       5     35.000    109.500
       6     35.000    109.500
       7     37.500    110.700
       8     37.500    110.700
       9     37.500    110.700
      10     83.000    116.900
      11     35.000    109.500
      12     35.000    109.500
      13     35.000    109.500
      14     69.900    118.180
      15     33.000    107.800
      16     33.000    107.800
      17     37.500    110.700
      18     33.000    107.800
      19     33.000    107.800
      20     33.000    107.800
      21     37.500    110.700
      22     33.000    107.800
      23     33.000    107.800

Dihedral Coeffs  

       1      0.000      5.124      0.000      0.000 
       2     -1.220     -0.126      0.422      0.000 
       3      0.000      0.000      0.468      0.000 
       4      0.000      5.124      0.000      0.000 
       5      0.000      0.000      0.198      0.000 
       6      4.669      5.124      0.000      0.000 
       7      0.000      0.000      0.468      0.000 
       8      0.000      0.000      0.300      0.000 
       9      0.000      0.000      0.198      0.000 
      10      0.000      0.000      0.198      0.000 
      11      0.000      0.000      0.300      0.000 
      12      0.000      0.000      0.468      0.000 
      13      0.000      0.000      0.300      0.000 
      14      0.000      0.000      0.300      0.000 
      15      0.000      0.000      0.300      0.000 
      16      4.669      5.124      0.000      0.000 
      17      0.000      0.000      0.198      0.000 
      18      0.000      0.000      0.300      0.000 
      19      0.000      0.000      0.198      0.000 

Improper Coeffs 

       1     10.500      -1       2 
       2      0.000      -1       2 
       3      0.000      -1       2 
       4      0.000      -1       2 
       5      0.000      -1       2 
       6      0.000      -1       2 
       7      0.000      -1       2 

Atoms 

     1      1      1 1.12590000   1.000  1.00000  0.00000
     2      1      2 -0.67470000   -0.210  1.00000  0.00000
     3      1      3 -0.62870000    1.785  1.00000 -1.07676
     4      1      4 -0.45650000    1.780  1.00137  1.08612
     5      1      5 0.59470000   1.104  1.00000 -2.36369
     6      1      6 -0.34210000    2.172  1.00183 -3.43427
     7      1      7 -0.06980000   0.468  1.88631 -2.41919
     8      1      8 -0.06980000   0.470  0.11234 -2.42024
     9      1      9 0.09100000   1.696  1.00057 -4.41865
    10      1     10 0.09100000   2.801  1.89155 -3.35781
    11      1     11 0.09100000   2.805  0.11469 -3.35727
    12      1     12 0.01310000    1.083  1.00297  2.35130
    13      1     13 0.07830000   0.462  0.11003  2.44709
    14      1     14 0.07830000   1.866  1.00260  3.10764
    15      1     15 0.07830000   0.462  1.89576  2.44450

Bonds 

     1      1      2      1
     2      2      3      1
     3      3      4      1
     4      4      5      3
     5      5      6      5
     6      6      7      5
     7      7      8      5
     8      8      9      6
     9      9     10      6
    10     10     11      6
    11     11     12      4
    12     12     13     12
    13     13     14     12
    14     14     15     12

Angles 

     1      1      2      1      3
     2      2      2      1      4
     3      3      1      3      5
     4      4      3      5      6
     5      5      3      5      7
     6      6      3      5      8
     7      7      5      6      9
     8      8      5      6     10
     9      9      5      6     11
    10     10      1      4     12
    11     11      4     12     13
    12     12      4     12     14
    13     13      4     12     15
    14     14      3      1      4
    15     15     10      6     11
    16     16     14     12     15
    17     17      6      5      7
    18     18     13     12     14
    19     19      9      6     10
    20     20     13     12     15
    21     21      6      5      8
    22     22      7      5      8
    23     23      9      6     11

Dihedrals

     1      1      5      3      1      2 
     2      2      6      5      3      1 
     3      3      9      6      5      3 
     4      4     12      4      1      2 
     5      5     13     12      4      1 
     6      6      5      3      1      4 
     7      7     10      6      5      3 
     8      8      9      6      5      7 
     9      9      7      5      3      1 
    10     10     14     12      4      1 
    11     11     10      6      5      7 
    12     12     11      6      5      3 
    13     13     11      6      5      7 
    14     14     11      6      5      8 
    15     15      9      6      5      8 
    16     16     12      4      1      3 
    17     17      8      5      3      1 
    18     18     10      6      5      8 
    19     19     15     12      4      1 

Impropers

     1      1      1      2      3      4 
     2      2      5      3      6      7 
     3      3      5      3      6      8 
     4      4      6      9     10      5 
     5      5      6      9     11      5 
     6      6     12      4     13     14 
     7      7     12      4     13     15 

