LAMMPS data file Created by LigParGen - (Written by Leela S. Dodda)

      18 atoms
      17 bonds
      31 angles
      33 dihedrals
      10 impropers
 
      18 atom types
      17 bond types
      31 angle types
      33 dihedral types
      10 improper types
 
   -2.935100    47.064900 xlo xhi
   -1.033650    48.966350 ylo yhi
   -1.977020    48.022980 zlo zhi

Masses

       1     15.999  
       2     12.011  
       3      1.008  
       4      1.008  
       5     12.011  
       6     12.011  
       7      1.008  
       8     12.011  
       9     12.011  
      10      1.008  
      11     18.998  
      12     18.998  
      13     18.998  
      14     18.998  
      15     18.998  
      16     18.998  
      17     18.998  
      18     18.998  

Pair Coeffs 

       1      0.140  2.9000000 
       2      0.066  3.5000000 
       3      0.030  2.5000000 
       4      0.030  2.5000000 
       5      0.066  3.5000000 
       6      0.066  3.5000000 
       7      0.030  2.5000000 
       8      0.066  3.5000000 
       9      0.066  3.5000000 
      10      0.030  2.5000000 
      11      0.060  2.9000000 
      12      0.060  2.9000000 
      13      0.060  2.9000000 
      14      0.060  2.9000000 
      15      0.060  2.9000000 
      16      0.060  2.9000000 
      17      0.060  2.9000000 
      18      0.060  2.9000000 

Bond Coeffs 

       1   320.0000     1.4100 
       2   340.0000     1.0900 
       3   340.0000     1.0900 
       4   320.0000     1.4100 
       5   268.0000     1.5290 
       6   340.0000     1.0900 
       7   268.0000     1.5290 
       8   268.0000     1.5290 
       9   340.0000     1.0900 
      10   367.0000     1.3600 
      11   367.0000     1.3600 
      12   367.0000     1.3600 
      13   367.0000     1.3600 
      14   367.0000     1.3600 
      15   367.0000     1.3600 
      16   367.0000     1.3600 
      17   367.0000     1.3600 

Angle Coeffs 

       1     35.000    109.500
       2     35.000    109.500
       3     60.000    109.500
       4     50.000    109.500
       5     37.500    110.700
       6     50.000    109.500
       7     58.350    112.700
       8     37.500    110.700
       9     70.000    109.900
      10     70.000    109.900
      11     50.000    109.500
      12     50.000    109.500
      13     50.000    109.500
      14     50.000    109.500
      15     50.000    109.500
      16     50.000    109.500
      17     40.000    107.000
      18     40.000    107.000
      19     37.500    110.700
      20     77.000    109.100
      21     77.000    109.100
      22     50.000    109.500
      23     50.000    109.500
      24     37.500    110.700
      25     40.000    107.000
      26     77.000    109.100
      27     33.000    107.800
      28     50.000    109.500
      29     40.000    107.000
      30     50.000    109.500
      31     77.000    109.100

Dihedral Coeffs  

       1      0.000      0.000      0.760      0.000 
       2      0.650     -0.250      0.670      0.000 
       3      0.000      0.000      0.468      0.000 
       4      1.711     -0.500      0.663      0.000 
       5      0.000      0.000      0.300      0.000 
       6      0.000      0.000      0.360      0.000 
       7     -2.500      0.000      0.250      0.000 
       8      0.000      0.000      0.360      0.000 
       9      0.000      0.000      0.360      0.000 
      10      0.000      0.000      0.360      0.000 
      11      0.000      0.000      0.360      0.000 
      12      0.000      0.000      0.300      0.000 
      13      0.000      5.124      0.000      0.000 
      14     -2.500      0.000      0.250      0.000 
      15      0.000      0.000      0.540      0.000 
      16      0.000      0.000      0.360      0.000 
      17      0.000      0.000      0.000      0.000 
      18      0.000      0.000      0.000      0.000 
      19     -2.500      0.000      0.250      0.000 
      20     -2.500      0.000      0.250      0.000 
      21     -2.500      0.000      0.250      0.000 
      22      0.000      0.000      0.300      0.000 
      23      0.000      0.000      0.540      0.000 
      24      0.000      0.000      0.760      0.000 
      25      0.000      0.000      0.360      0.000 
      26      0.650     -0.250      0.670      0.000 
      27     -2.500      0.000      0.250      0.000 
      28      0.000      5.124      0.000      0.000 
      29      0.000      0.000      0.540      0.000 
      30      0.000      0.000      0.540      0.000 
      31      0.000      0.000      0.360      0.000 
      32     -2.500      0.000      0.250      0.000 
      33     -2.500      0.000      0.250      0.000 

Improper Coeffs 

       1      0.000      -1       2 
       2      0.000      -1       2 
       3      0.000      -1       2 
       4      0.000      -1       2 
       5      0.000      -1       2 
       6      0.000      -1       2 
       7      0.000      -1       2 
       8      0.000      -1       2 
       9      0.000      -1       2 
      10      0.000      -1       2 

Atoms 

     1      1      1 -0.35990000    1.000  1.00000  0.00000
     2      1      2 -0.03710000   -0.442  1.00000  0.00000
     3      1      3 0.14830000  -0.814  1.00000  1.02489
     4      1      4 0.14830000  -0.837  0.14242 -0.54630
     5      1      5 0.37730000  1.600 -0.19290  0.12181
     6      1      6 0.22160000  3.131 -0.03313  0.17200
     7      1      7 0.15450000  3.623 -1.00153  0.26981
     8      1      8 0.21810000  -0.874  2.27212 -0.70033
     9      1      9 0.17860000  -2.400  2.45392 -0.79839
    10      1     10 0.15830000  -2.656  3.38334 -1.30867
    11      1     11 -0.17460000    1.198 -0.85838  1.25424
    12      1     12 -0.17460000    1.292 -1.03365 -0.92118
    13      1     13 -0.13640000   -0.378  3.37238 -0.05175
    14      1     14 -0.13640000   -0.380  2.30845 -1.97702
    15      1     15 -0.15470000   -2.931  2.45873  0.46013
    16      1     16 -0.15470000   -2.935  1.39409 -1.47360
    17      1     17 -0.13830000    3.460  0.76028  1.22962
    18      1     18 -0.13830000    3.552  0.58556 -0.96669

Bonds 

     1      1      2      1
     2      2      3      2
     3      3      4      2
     4      4      5      1
     5      5      6      5
     6      6      7      6
     7      7      8      2
     8      8      9      8
     9      9     10      9
    10     10     11      5
    11     11     12      5
    12     12     13      8
    13     13     14      8
    14     14     15      9
    15     15     16      9
    16     16     17      6
    17     17     18      6

Angles 

     1      1      1      2      3
     2      2      1      2      4
     3      3      2      1      5
     4      4      1      5      6
     5      5      5      6      7
     6      6      1      2      8
     7      7      2      8      9
     8      8      8      9     10
     9      9      1      5     11
    10     10      1      5     12
    11     11      2      8     13
    12     12      2      8     14
    13     13      8      9     15
    14     14      8      9     16
    15     15      5      6     17
    16     16      5      6     18
    17     17      7      6     17
    18     18     10      9     16
    19     19      4      2      8
    20     20     17      6     18
    21     21     15      9     16
    22     22      6      5     11
    23     23      9      8     13
    24     24      3      2      8
    25     25     10      9     15
    26     26     13      8     14
    27     27      3      2      4
    28     28      6      5     12
    29     29      7      6     18
    30     30      9      8     14
    31     31     11      5     12

Dihedrals

     1      1      5      1      2      3 
     2      2      6      5      1      2 
     3      3      7      6      5      1 
     4      4      9      8      2      1 
     5      5     10      9      8      2 
     6      6     14      8      9     10 
     7      7     15      9      8     13 
     8      8     14      8      2      3 
     9      9     13      8      2      4 
    10     10     14      8      2      4 
    11     11     13      8      2      3 
    12     12      9      8      2      4 
    13     13     12      5      1      2 
    14     14     16      9      8     13 
    15     15     18      6      5      1 
    16     16     13      8      9     10 
    17     17     16      9      8      2 
    18     18     15      9      8      2 
    19     19     18      6      5     11 
    20     20     17      6      5     12 
    21     21     15      9      8     14 
    22     22      9      8      2      3 
    23     23     17      6      5      1 
    24     24      5      1      2      4 
    25     25     11      5      6      7 
    26     26      8      2      1      5 
    27     27     18      6      5     12 
    28     28     11      5      1      2 
    29     29     14      8      2      1 
    30     30     13      8      2      1 
    31     31     12      5      6      7 
    32     32     17      6      5     11 
    33     33     16      9      8     14 

Impropers

     1      1      2      1      3      4 
     2      2      2      1      3      8 
     3      3      5      1     11      6 
     4      4      5      1     12      6 
     5      5      8      9      2     13 
     6      6      8      9      2     14 
     7      7      9     10     15      8 
     8      8      9     10      8     16 
     9      9      6     17      5      7 
    10     10      6     18      5      7 

